<?xml version="1.0" encoding="UTF-8"?>

<!-- generated on 2026-04-09T11:54:19.758972+05:30 by Eclipse SUMO GUI 1.25.0
<sumoConfiguration xmlns:xsi="http://www.w3.org/2001/XMLSchema-instance" xsi:noNamespaceSchemaLocation="http://sumo.dlr.de/xsd/sumoConfiguration.xsd">

    <input>
        <net-file value="D:\ResQFlow_ML\sumo\scenarios\mysore.net.xml"/>
        <route-files value="D:\ResQFlow_ML\sumo\scenarios\mysore.rou.xml"/>
        <additional-files value="D:\ResQFlow_ML\sumo\scenarios\mysore.poly.xml,D:\ResQFlow_ML\sumo\scenarios\mysore.add.xml"/>
    </input>

    <output>
        <tripinfo-output value="D:\ResQFlow_ML\sumo\scenarios\tripinfo.xml"/>
    </output>

    <time>
        <begin value="0"/>
        <end value="3600"/>
        <step-length value="1"/>
    </time>

    <processing>
        <ignore-route-errors value="true"/>
        <scale value="1.8"/>
    </processing>

    <report>
        <verbose value="true"/>
        <no-step-log value="false"/>
    </report>

    <traci_server>
        <remote-port value="8813"/>
    </traci_server>

    <gui_only>
        <quit-on-end value="false"/>
        <start value="true"/>
    </gui_only>

</sumoConfiguration>
-->

<tripinfos xmlns:xsi="http://www.w3.org/2001/XMLSchema-instance" xsi:noNamespaceSchemaLocation="http://sumo.dlr.de/xsd/tripinfo_file.xsd">
    <tripinfo id="4" depart="20.00" departLane="-822403023#3_0" departPos="5.10" departSpeed="0.00" departDelay="0.00" arrival="140.00" arrivalLane="-155751165#6_0" arrivalPos="12.15" arrivalSpeed="19.41" duration="120.00" routeLength="1789.73" waitingTime="0.00" waitingCount="0" stopTime="0.00" timeLoss="21.94" rerouteNo="0" devices="tripinfo_4" vType="passenger" speedFactor="0.89" vaporized=""/>
    <tripinfo id="4.1" depart="23.00" departLane="-822403023#3_0" departPos="5.10" departSpeed="0.00" departDelay="3.00" arrival="141.00" arrivalLane="-155751165#6_0" arrivalPos="12.15" arrivalSpeed="20.82" duration="118.00" routeLength="1789.73" waitingTime="0.00" waitingCount="0" stopTime="0.00" timeLoss="26.24" rerouteNo="0" devices="tripinfo_4.1" vType="passenger" speedFactor="0.94" vaporized=""/>
    <tripinfo id="2" depart="10.00" departLane="319663654#12_0" departPos="4.40" departSpeed="0.00" departDelay="0.00" arrival="183.00" arrivalLane="319536932#8_0" arrivalPos="9.22" arrivalSpeed="8.43" duration="173.00" routeLength="2435.74" waitingTime="0.00" waitingCount="0" stopTime="0.00" timeLoss="47.38" rerouteNo="0" devices="tripinfo_2" vType="passenger" speedFactor="1.08" vaporized=""/>
    <tripinfo id="16" depart="80.00" departLane="-360693964#5_0" departPos="5.10" departSpeed="0.00" departDelay="0.00" arrival="186.00" arrivalLane="257431313#1_0" arrivalPos="22.54" arrivalSpeed="11.86" duration="106.00" routeLength="1425.63" waitingTime="0.00" waitingCount="0" stopTime="0.00" timeLoss="19.44" rerouteNo="0" devices="tripinfo_16" vType="passenger" speedFactor="0.93" vaporized=""/>
    <tripinfo id="2.1" depart="13.00" departLane="319663654#12_0" departPos="4.40" departSpeed="0.00" departDelay="3.00" arrival="193.00" arrivalLane="319536932#8_0" arrivalPos="9.22" arrivalSpeed="7.40" duration="180.00" routeLength="2435.74" waitingTime="0.00" waitingCount="0" stopTime="0.00" timeLoss="47.59" rerouteNo="0" devices="tripinfo_2.1" vType="passenger" speedFactor="1.03" vaporized=""/>
    <tripinfo id="12" depart="60.00" departLane="-28186493#4_0" departPos="2.52" departSpeed="0.00" departDelay="0.00" arrival="232.00" arrivalLane="-28195257#1_0" arrivalPos="85.29" arrivalSpeed="13.81" duration="172.00" routeLength="2802.53" waitingTime="0.00" waitingCount="0" stopTime="0.00" timeLoss="34.64" rerouteNo="0" devices="tripinfo_12" vType="passenger" speedFactor="1.01" vaporized=""/>
    <tripinfo id="0" depart="0.00" departLane="31136038#4_0" departPos="5.10" departSpeed="0.00" departDelay="0.00" arrival="240.00" arrivalLane="-1315251841_0" arrivalPos="23.19" arrivalSpeed="13.15" duration="240.00" routeLength="4356.20" waitingTime="0.00" waitingCount="0" stopTime="0.00" timeLoss="52.12" rerouteNo="0" devices="tripinfo_0" vType="passenger" speedFactor="1.06" vaporized=""/>
    <tripinfo id="6" depart="30.00" departLane="-1303398338#0_0" departPos="5.10" departSpeed="0.00" departDelay="0.00" arrival="240.00" arrivalLane="-319540046#2_0" arrivalPos="12.70" arrivalSpeed="13.37" duration="210.00" routeLength="3396.68" waitingTime="16.00" waitingCount="1" stopTime="0.00" timeLoss="70.49" rerouteNo="0" devices="tripinfo_6" vType="passenger" speedFactor="1.03" vaporized=""/>
    <tripinfo id="22" depart="110.00" departLane="-28195257#5_0" departPos="0.20" departSpeed="0.00" departDelay="0.00" arrival="257.00" arrivalLane="-324877342#2_0" arrivalPos="35.41" arrivalSpeed="12.39" duration="147.00" routeLength="2080.35" waitingTime="8.00" waitingCount="1" stopTime="0.00" timeLoss="37.43" rerouteNo="0" devices="tripinfo_22" vType="passenger" speedFactor="0.90" vaporized=""/>
    <tripinfo id="22.1" depart="113.00" departLane="-28195257#5_0" departPos="0.20" departSpeed="0.00" departDelay="3.00" arrival="260.00" arrivalLane="-324877342#2_0" arrivalPos="35.41" arrivalSpeed="13.82" duration="147.00" routeLength="2080.35" waitingTime="7.00" waitingCount="1" stopTime="0.00" timeLoss="49.63" rerouteNo="0" devices="tripinfo_22.1" vType="passenger" speedFactor="1.03" vaporized=""/>
    <tripinfo id="25" depart="125.00" departLane="-320147256_0" departPos="5.10" departSpeed="0.00" departDelay="0.00" arrival="260.00" arrivalLane="824548684_0" arrivalPos="29.68" arrivalSpeed="14.52" duration="135.00" routeLength="1594.00" waitingTime="0.00" waitingCount="0" stopTime="0.00" timeLoss="31.72" rerouteNo="0" devices="tripinfo_25" vType="passenger" speedFactor="1.09" vaporized=""/>
    <tripinfo id="3.1" depart="18.00" departLane="360845850_0" departPos="5.10" departSpeed="0.00" departDelay="3.00" arrival="261.00" arrivalLane="-28186483#5_0" arrivalPos="2.28" arrivalSpeed="13.37" duration="243.00" routeLength="3894.86" waitingTime="0.00" waitingCount="0" stopTime="0.00" timeLoss="70.33" rerouteNo="0" devices="tripinfo_3.1" vType="passenger" speedFactor="1.05" vaporized=""/>
    <tripinfo id="0.1" depart="3.00" departLane="31136038#4_0" departPos="5.10" departSpeed="0.00" departDelay="3.00" arrival="262.00" arrivalLane="-1315251841_0" arrivalPos="23.19" arrivalSpeed="10.07" duration="259.00" routeLength="4356.20" waitingTime="0.00" waitingCount="0" stopTime="0.00" timeLoss="47.76" rerouteNo="0" devices="tripinfo_0.1" vType="passenger" speedFactor="0.94" vaporized=""/>
    <tripinfo id="18" depart="90.00" departLane="360515282#3_0" departPos="5.10" departSpeed="0.00" departDelay="0.00" arrival="267.00" arrivalLane="28186493#8_0" arrivalPos="2.72" arrivalSpeed="7.79" duration="177.00" routeLength="2814.74" waitingTime="0.00" waitingCount="0" stopTime="0.00" timeLoss="30.54" rerouteNo="0" devices="tripinfo_18" vType="passenger" speedFactor="1.01" vaporized=""/>
    <tripinfo id="18.1" depart="93.00" departLane="360515282#3_0" departPos="5.10" departSpeed="0.00" departDelay="3.00" arrival="270.00" arrivalLane="28186493#8_0" arrivalPos="2.72" arrivalSpeed="8.16" duration="177.00" routeLength="2814.74" waitingTime="1.00" waitingCount="1" stopTime="0.00" timeLoss="51.47" rerouteNo="0" devices="tripinfo_18.1" vType="passenger" speedFactor="1.17" vaporized=""/>
    <tripinfo id="25.1" depart="128.00" departLane="-320147256_0" departPos="5.10" departSpeed="0.00" departDelay="3.00" arrival="273.00" arrivalLane="824548684_0" arrivalPos="29.68" arrivalSpeed="13.26" duration="145.00" routeLength="1594.00" waitingTime="0.00" waitingCount="0" stopTime="0.00" timeLoss="32.80" rerouteNo="0" devices="tripinfo_25.1" vType="passenger" speedFactor="1.00" vaporized=""/>
    <tripinfo id="17.1" depart="88.00" departLane="360213518#0_0" departPos="5.10" departSpeed="0.00" departDelay="3.00" arrival="285.00" arrivalLane="28451047#3_0" arrivalPos="31.89" arrivalSpeed="13.43" duration="197.00" routeLength="3181.96" waitingTime="11.00" waitingCount="1" stopTime="0.00" timeLoss="67.35" rerouteNo="0" devices="tripinfo_17.1" vType="passenger" speedFactor="1.15" vaporized=""/>
    <tripinfo id="17" depart="85.00" departLane="360213518#0_0" departPos="5.10" departSpeed="0.00" departDelay="0.00" arrival="288.00" arrivalLane="28451047#3_0" arrivalPos="31.89" arrivalSpeed="15.05" duration="203.00" routeLength="3181.96" waitingTime="16.00" waitingCount="1" stopTime="0.00" timeLoss="75.83" rerouteNo="0" devices="tripinfo_17" vType="passenger" speedFactor="1.18" vaporized=""/>
    <tripinfo id="3" depart="15.00" departLane="360845850_0" departPos="5.10" departSpeed="0.00" departDelay="0.00" arrival="291.00" arrivalLane="-28186483#5_0" arrivalPos="2.28" arrivalSpeed="10.60" duration="276.00" routeLength="3894.86" waitingTime="0.00" waitingCount="0" stopTime="0.00" timeLoss="56.86" rerouteNo="0" devices="tripinfo_3" vType="passenger" speedFactor="0.83" vaporized=""/>
    <tripinfo id="5.1" depart="28.00" departLane="-319657621#1_0" departPos="5.10" departSpeed="0.00" departDelay="3.00" arrival="296.00" arrivalLane="1315248296#0_0" arrivalPos="13.53" arrivalSpeed="10.55" duration="268.00" routeLength="5068.67" waitingTime="2.00" waitingCount="1" stopTime="0.00" timeLoss="76.59" rerouteNo="0" devices="tripinfo_5.1" vType="passenger" speedFactor="1.09" vaporized=""/>
    <tripinfo id="12.1" depart="63.00" departLane="-28186493#4_0" departPos="2.52" departSpeed="0.00" departDelay="3.00" arrival="297.00" arrivalLane="-28195257#1_0" arrivalPos="85.29" arrivalSpeed="12.38" duration="234.00" routeLength="2802.53" waitingTime="41.00" waitingCount="1" stopTime="0.00" timeLoss="89.40" rerouteNo="0" devices="tripinfo_12.1" vType="passenger" speedFactor="0.97" vaporized=""/>
    <tripinfo id="13" depart="65.00" departLane="360330381#1_0" departPos="5.10" departSpeed="0.00" departDelay="0.00" arrival="297.00" arrivalLane="28245990#6_0" arrivalPos="21.58" arrivalSpeed="12.00" duration="232.00" routeLength="3160.20" waitingTime="0.00" waitingCount="0" stopTime="0.00" timeLoss="49.52" rerouteNo="0" devices="tripinfo_13" vType="passenger" speedFactor="0.89" vaporized=""/>
    <tripinfo id="24" depart="120.00" departLane="-360688870#1_0" departPos="5.10" departSpeed="0.00" departDelay="0.00" arrival="297.00" arrivalLane="-319562610#1_0" arrivalPos="82.63" arrivalSpeed="14.01" duration="177.00" routeLength="3083.75" waitingTime="0.00" waitingCount="0" stopTime="0.00" timeLoss="36.89" rerouteNo="0" devices="tripinfo_24" vType="passenger" speedFactor="1.04" vaporized=""/>
    <tripinfo id="24.1" depart="123.00" departLane="-360688870#1_0" departPos="5.10" departSpeed="0.00" departDelay="3.00" arrival="301.00" arrivalLane="-319562610#1_0" arrivalPos="82.63" arrivalSpeed="13.47" duration="178.00" routeLength="3083.75" waitingTime="0.00" waitingCount="0" stopTime="0.00" timeLoss="39.41" rerouteNo="0" devices="tripinfo_24.1" vType="passenger" speedFactor="1.04" vaporized=""/>
    <tripinfo id="1" depart="5.00" departLane="-324871564_0" departPos="5.10" departSpeed="0.00" departDelay="0.00" arrival="303.00" arrivalLane="-319659786#1_0" arrivalPos="75.28" arrivalSpeed="12.95" duration="298.00" routeLength="4295.69" waitingTime="5.00" waitingCount="1" stopTime="0.00" timeLoss="72.17" rerouteNo="0" devices="tripinfo_1" vType="passenger" speedFactor="1.01" vaporized=""/>
    <tripinfo id="27" depart="135.00" departLane="-319392760#3_0" departPos="5.10" departSpeed="0.00" departDelay="0.00" arrival="304.00" arrivalLane="319663205#1_0" arrivalPos="21.93" arrivalSpeed="11.80" duration="169.00" routeLength="2275.26" waitingTime="0.00" waitingCount="0" stopTime="0.00" timeLoss="33.15" rerouteNo="0" devices="tripinfo_27" vType="passenger" speedFactor="0.88" vaporized=""/>
    <tripinfo id="13.1" depart="68.00" departLane="360330381#1_0" departPos="5.10" departSpeed="0.00" departDelay="3.00" arrival="314.00" arrivalLane="28245990#6_0" arrivalPos="21.58" arrivalSpeed="10.48" duration="246.00" routeLength="3160.20" waitingTime="0.00" waitingCount="0" stopTime="0.00" timeLoss="50.34" rerouteNo="0" devices="tripinfo_13.1" vType="passenger" speedFactor="0.83" vaporized=""/>
    <tripinfo id="27.1" depart="138.00" departLane="-319392760#3_0" departPos="5.10" departSpeed="0.00" departDelay="3.00" arrival="316.00" arrivalLane="319663205#1_0" arrivalPos="21.93" arrivalSpeed="10.56" duration="178.00" routeLength="2275.26" waitingTime="0.00" waitingCount="0" stopTime="0.00" timeLoss="37.90" rerouteNo="0" devices="tripinfo_27.1" vType="passenger" speedFactor="0.85" vaporized=""/>
    <tripinfo id="5" depart="25.00" departLane="-319657621#1_0" departPos="5.10" departSpeed="0.00" departDelay="0.00" arrival="332.00" arrivalLane="1315248296#0_0" arrivalPos="13.53" arrivalSpeed="8.12" duration="307.00" routeLength="5069.87" waitingTime="0.00" waitingCount="0" stopTime="0.00" timeLoss="63.21" rerouteNo="0" devices="tripinfo_5" vType="passenger" speedFactor="0.86" vaporized=""/>
    <tripinfo id="47" depart="235.00" departLane="86263898#12_0" departPos="5.10" departSpeed="0.00" departDelay="0.00" arrival="335.00" arrivalLane="231429519#4_0" arrivalPos="20.68" arrivalSpeed="14.82" duration="100.00" routeLength="1618.60" waitingTime="0.00" waitingCount="0" stopTime="0.00" timeLoss="23.71" rerouteNo="0" devices="tripinfo_47" vType="passenger" speedFactor="1.15" vaporized=""/>
    <tripinfo id="48" depart="240.00" departLane="826411002#5_0" departPos="5.10" departSpeed="0.00" departDelay="0.00" arrival="341.00" arrivalLane="360515435#2_0" arrivalPos="26.15" arrivalSpeed="12.89" duration="101.00" routeLength="1439.79" waitingTime="0.00" waitingCount="0" stopTime="0.00" timeLoss="21.51" rerouteNo="0" devices="tripinfo_48" vType="passenger" speedFactor="1.00" vaporized=""/>
    <tripinfo id="48.1" depart="243.00" departLane="826411002#5_0" departPos="5.10" departSpeed="0.00" departDelay="3.00" arrival="343.00" arrivalLane="360515435#2_0" arrivalPos="26.15" arrivalSpeed="13.55" duration="100.00" routeLength="1439.79" waitingTime="0.00" waitingCount="0" stopTime="0.00" timeLoss="23.78" rerouteNo="0" devices="tripinfo_48.1" vType="passenger" speedFactor="1.04" vaporized=""/>
    <tripinfo id="47.1" depart="238.00" departLane="86263898#12_0" departPos="5.10" departSpeed="0.00" departDelay="3.00" arrival="348.00" arrivalLane="231429519#4_0" arrivalPos="20.68" arrivalSpeed="12.34" duration="110.00" routeLength="1618.60" waitingTime="0.00" waitingCount="0" stopTime="0.00" timeLoss="21.44" rerouteNo="0" devices="tripinfo_47.1" vType="passenger" speedFactor="0.98" vaporized=""/>
    <tripinfo id="35" depart="175.00" departLane="360691183#1_0" departPos="5.10" departSpeed="0.00" departDelay="0.00" arrival="378.00" arrivalLane="-326190897#6_0" arrivalPos="12.68" arrivalSpeed="9.16" duration="203.00" routeLength="2876.78" waitingTime="0.00" waitingCount="0" stopTime="0.00" timeLoss="54.52" rerouteNo="0" devices="tripinfo_35" vType="passenger" speedFactor="0.99" vaporized=""/>
    <tripinfo id="59" depart="295.00" departLane="320145108#1_0" departPos="5.10" departSpeed="0.00" departDelay="0.00" arrival="382.00" arrivalLane="233244374#5_0" arrivalPos="110.79" arrivalSpeed="22.42" duration="87.00" routeLength="1339.76" waitingTime="0.00" waitingCount="0" stopTime="0.00" timeLoss="17.70" rerouteNo="0" devices="tripinfo_59" vType="passenger" speedFactor="1.01" vaporized=""/>
    <tripinfo id="59.1" depart="298.00" departLane="320145108#1_0" departPos="5.10" departSpeed="0.00" departDelay="3.00" arrival="386.00" arrivalLane="233244374#5_0" arrivalPos="110.79" arrivalSpeed="21.83" duration="88.00" routeLength="1339.76" waitingTime="0.00" waitingCount="0" stopTime="0.00" timeLoss="19.97" rerouteNo="0" devices="tripinfo_59.1" vType="passenger" speedFactor="1.03" vaporized=""/>
    <tripinfo id="35.1" depart="178.00" departLane="360691183#1_0" departPos="5.10" departSpeed="0.00" departDelay="3.00" arrival="387.00" arrivalLane="-326190897#6_0" arrivalPos="12.68" arrivalSpeed="8.35" duration="209.00" routeLength="2876.78" waitingTime="0.00" waitingCount="0" stopTime="0.00" timeLoss="52.17" rerouteNo="0" devices="tripinfo_35.1" vType="passenger" speedFactor="0.94" vaporized=""/>
    <tripinfo id="38" depart="190.00" departLane="-320145113#1_0" departPos="5.10" departSpeed="0.00" departDelay="0.00" arrival="400.00" arrivalLane="-319887848#1_0" arrivalPos="129.69" arrivalSpeed="13.67" duration="210.00" routeLength="2724.25" waitingTime="0.00" waitingCount="0" stopTime="0.00" timeLoss="43.94" rerouteNo="0" devices="tripinfo_38" vType="passenger" speedFactor="1.04" vaporized=""/>
    <tripinfo id="8" depart="40.00" departLane="-319657642#2_0" departPos="5.10" departSpeed="0.00" departDelay="0.00" arrival="405.00" arrivalLane="28213535#3_0" arrivalPos="32.85" arrivalSpeed="13.26" duration="365.00" routeLength="5827.18" waitingTime="25.00" waitingCount="2" stopTime="0.00" timeLoss="102.59" rerouteNo="0" devices="tripinfo_8" vType="passenger" speedFactor="0.99" vaporized=""/>
    <tripinfo id="39" depart="195.00" departLane="258147004#5_0" departPos="5.10" departSpeed="0.00" departDelay="0.00" arrival="405.00" arrivalLane="-320147263#6_0" arrivalPos="69.56" arrivalSpeed="13.39" duration="210.00" routeLength="3492.71" waitingTime="0.00" waitingCount="0" stopTime="0.00" timeLoss="35.57" rerouteNo="0" devices="tripinfo_39" vType="passenger" speedFactor="1.02" vaporized=""/>
    <tripinfo id="38.1" depart="193.00" departLane="-320145113#1_0" departPos="5.10" departSpeed="0.00" departDelay="3.00" arrival="406.00" arrivalLane="-319887848#1_0" arrivalPos="129.69" arrivalSpeed="14.04" duration="213.00" routeLength="2724.25" waitingTime="0.00" waitingCount="0" stopTime="0.00" timeLoss="43.71" rerouteNo="0" devices="tripinfo_38.1" vType="passenger" speedFactor="1.02" vaporized=""/>
    <tripinfo id="8.1" depart="43.00" departLane="-319657642#2_0" departPos="5.10" departSpeed="0.00" departDelay="3.00" arrival="409.00" arrivalLane="28213535#3_0" arrivalPos="32.85" arrivalSpeed="12.23" duration="366.00" routeLength="5827.18" waitingTime="10.00" waitingCount="1" stopTime="0.00" timeLoss="84.59" rerouteNo="0" devices="tripinfo_8.1" vType="passenger" speedFactor="0.93" vaporized=""/>
    <tripinfo id="29" depart="145.00" departLane="86260519#11_0" departPos="5.10" departSpeed="0.00" departDelay="0.00" arrival="415.00" arrivalLane="313176067#13_0" arrivalPos="55.79" arrivalSpeed="21.66" duration="270.00" routeLength="4652.21" waitingTime="0.00" waitingCount="0" stopTime="0.00" timeLoss="43.30" rerouteNo="0" devices="tripinfo_29" vType="passenger" speedFactor="1.02" vaporized=""/>
    <tripinfo id="39.1" depart="198.00" departLane="258147004#5_0" departPos="5.10" departSpeed="0.00" departDelay="3.00" arrival="415.00" arrivalLane="-320147263#6_0" arrivalPos="69.56" arrivalSpeed="12.96" duration="217.00" routeLength="3492.71" waitingTime="0.00" waitingCount="0" stopTime="0.00" timeLoss="34.65" rerouteNo="0" devices="tripinfo_39.1" vType="passenger" speedFactor="0.97" vaporized=""/>
    <tripinfo id="29.1" depart="148.00" departLane="86260519#11_0" departPos="5.10" departSpeed="0.00" departDelay="3.00" arrival="418.00" arrivalLane="313176067#13_0" arrivalPos="55.79" arrivalSpeed="23.14" duration="270.00" routeLength="4652.21" waitingTime="0.00" waitingCount="0" stopTime="0.00" timeLoss="60.10" rerouteNo="0" devices="tripinfo_29.1" vType="passenger" speedFactor="1.10" vaporized=""/>
    <tripinfo id="44" depart="220.00" departLane="-28226039_0" departPos="5.10" departSpeed="0.00" departDelay="0.00" arrival="426.00" arrivalLane="28496132#5_0" arrivalPos="15.70" arrivalSpeed="14.26" duration="206.00" routeLength="2990.12" waitingTime="0.00" waitingCount="0" stopTime="0.00" timeLoss="40.71" rerouteNo="0" devices="tripinfo_44" vType="passenger" speedFactor="1.09" vaporized=""/>
    <tripinfo id="28" depart="140.00" departLane="-317375239_0" departPos="5.10" departSpeed="0.00" departDelay="0.00" arrival="429.00" arrivalLane="-360829795#1_0" arrivalPos="27.80" arrivalSpeed="11.24" duration="289.00" routeLength="3636.05" waitingTime="31.00" waitingCount="2" stopTime="0.00" timeLoss="78.11" rerouteNo="0" devices="tripinfo_28" vType="passenger" speedFactor="0.85" vaporized=""/>
    <tripinfo id="28.1" depart="143.00" departLane="-317375239_0" departPos="5.10" departSpeed="0.00" departDelay="3.00" arrival="431.00" arrivalLane="-360829795#1_0" arrivalPos="27.80" arrivalSpeed="14.15" duration="288.00" routeLength="3636.05" waitingTime="28.00" waitingCount="2" stopTime="0.00" timeLoss="134.16" rerouteNo="0" devices="tripinfo_28.1" vType="passenger" speedFactor="1.17" vaporized=""/>
    <tripinfo id="15" depart="75.00" departLane="231429519#5_0" departPos="5.10" departSpeed="0.00" departDelay="0.00" arrival="435.00" arrivalLane="826414528#10_0" arrivalPos="16.36" arrivalSpeed="8.95" duration="360.00" routeLength="5312.62" waitingTime="0.00" waitingCount="0" stopTime="0.00" timeLoss="59.09" rerouteNo="0" devices="tripinfo_15" vType="passenger" speedFactor="0.95" vaporized=""/>
    <tripinfo id="15.1" depart="78.00" departLane="231429519#5_0" departPos="5.10" departSpeed="0.00" departDelay="3.00" arrival="437.00" arrivalLane="826414528#10_0" arrivalPos="16.36" arrivalSpeed="11.08" duration="359.00" routeLength="5312.62" waitingTime="0.00" waitingCount="0" stopTime="0.00" timeLoss="103.92" rerouteNo="0" devices="tripinfo_15.1" vType="passenger" speedFactor="1.13" vaporized=""/>
    <tripinfo id="31" depart="155.00" departLane="360318384#4_0" departPos="5.10" departSpeed="0.00" departDelay="0.00" arrival="438.00" arrivalLane="324877345_0" arrivalPos="249.09" arrivalSpeed="11.44" duration="283.00" routeLength="4647.13" waitingTime="0.00" waitingCount="0" stopTime="0.00" timeLoss="51.05" rerouteNo="0" devices="tripinfo_31" vType="passenger" speedFactor="0.90" vaporized=""/>
    <tripinfo id="44.1" depart="223.00" departLane="-28226039_0" departPos="5.10" departSpeed="0.00" departDelay="3.00" arrival="439.00" arrivalLane="28496132#5_0" arrivalPos="15.70" arrivalSpeed="13.40" duration="216.00" routeLength="2990.12" waitingTime="0.00" waitingCount="0" stopTime="0.00" timeLoss="42.13" rerouteNo="0" devices="tripinfo_44.1" vType="passenger" speedFactor="1.03" vaporized=""/>
    <tripinfo id="62" depart="310.00" departLane="-1256472120#0_0" departPos="5.10" departSpeed="0.00" departDelay="0.00" arrival="441.00" arrivalLane="822236221#2_0" arrivalPos="4.92" arrivalSpeed="11.47" duration="131.00" routeLength="1790.14" waitingTime="1.00" waitingCount="1" stopTime="0.00" timeLoss="23.08" rerouteNo="0" devices="tripinfo_62" vType="passenger" speedFactor="0.87" vaporized=""/>
    <tripinfo id="62.1" depart="313.00" departLane="-1256472120#0_0" departPos="5.10" departSpeed="0.00" departDelay="3.00" arrival="444.00" arrivalLane="822236221#2_0" arrivalPos="4.92" arrivalSpeed="11.85" duration="131.00" routeLength="1790.14" waitingTime="0.00" waitingCount="0" stopTime="0.00" timeLoss="46.31" rerouteNo="0" devices="tripinfo_62.1" vType="passenger" speedFactor="1.10" vaporized=""/>
    <tripinfo id="34" depart="170.00" departLane="-319558346#0_0" departPos="5.10" departSpeed="0.00" departDelay="0.00" arrival="446.00" arrivalLane="824830847#3_0" arrivalPos="20.66" arrivalSpeed="14.76" duration="276.00" routeLength="3920.97" waitingTime="0.00" waitingCount="0" stopTime="0.00" timeLoss="57.73" rerouteNo="0" devices="tripinfo_34" vType="passenger" speedFactor="1.12" vaporized=""/>
    <tripinfo id="11" depart="55.00" departLane="826123049_0" departPos="5.10" departSpeed="0.00" departDelay="0.00" arrival="448.00" arrivalLane="-360318388#2_0" arrivalPos="28.72" arrivalSpeed="13.72" duration="393.00" routeLength="6453.05" waitingTime="0.00" waitingCount="0" stopTime="0.00" timeLoss="96.16" rerouteNo="0" devices="tripinfo_11" vType="passenger" speedFactor="1.02" vaporized=""/>
    <tripinfo id="46" depart="230.00" departLane="-234376524#3_0" departPos="3.07" departSpeed="0.00" departDelay="0.00" arrival="453.00" arrivalLane="-360833416_0" arrivalPos="118.65" arrivalSpeed="12.94" duration="223.00" routeLength="3305.71" waitingTime="12.00" waitingCount="1" stopTime="0.00" timeLoss="60.21" rerouteNo="0" devices="tripinfo_46" vType="passenger" speedFactor="0.97" vaporized=""/>
    <tripinfo id="9" depart="45.00" departLane="326150420#0_0" departPos="5.10" departSpeed="0.00" departDelay="0.00" arrival="456.00" arrivalLane="319542686#2_0" arrivalPos="29.56" arrivalSpeed="11.99" duration="411.00" routeLength="5103.07" waitingTime="0.00" waitingCount="0" stopTime="0.00" timeLoss="55.41" rerouteNo="0" devices="tripinfo_9" vType="passenger" speedFactor="0.88" vaporized=""/>
    <tripinfo id="30" depart="150.00" departLane="257422313#2_0" departPos="5.10" departSpeed="0.00" departDelay="0.00" arrival="456.00" arrivalLane="319536971#7_0" arrivalPos="17.96" arrivalSpeed="9.78" duration="306.00" routeLength="4573.74" waitingTime="0.00" waitingCount="0" stopTime="0.00" timeLoss="48.17" rerouteNo="0" devices="tripinfo_30" vType="passenger" speedFactor="1.00" vaporized=""/>
    <tripinfo id="32" depart="160.00" departLane="-319659802#7_0" departPos="5.10" departSpeed="0.00" departDelay="0.00" arrival="456.00" arrivalLane="-193442317#13_0" arrivalPos="21.50" arrivalSpeed="10.42" duration="296.00" routeLength="5223.95" waitingTime="2.00" waitingCount="1" stopTime="0.00" timeLoss="74.21" rerouteNo="0" devices="tripinfo_32" vType="passenger" speedFactor="1.14" vaporized=""/>
    <tripinfo id="9.1" depart="48.00" departLane="326150420#0_0" departPos="5.10" departSpeed="0.00" departDelay="3.00" arrival="459.00" arrivalLane="319542686#2_0" arrivalPos="29.56" arrivalSpeed="12.30" duration="411.00" routeLength="5103.07" waitingTime="0.00" waitingCount="0" stopTime="0.00" timeLoss="78.50" rerouteNo="0" devices="tripinfo_9.1" vType="passenger" speedFactor="0.94" vaporized=""/>
    <tripinfo id="30.1" depart="153.00" departLane="257422313#2_0" departPos="5.10" departSpeed="0.00" departDelay="3.00" arrival="463.00" arrivalLane="319536971#7_0" arrivalPos="17.96" arrivalSpeed="9.66" duration="310.00" routeLength="4573.74" waitingTime="0.00" waitingCount="0" stopTime="0.00" timeLoss="50.32" rerouteNo="0" devices="tripinfo_30.1" vType="passenger" speedFactor="1.00" vaporized=""/>
    <tripinfo id="20.1" depart="103.00" departLane="-319659794#3_0" departPos="5.10" departSpeed="0.00" departDelay="3.00" arrival="464.00" arrivalLane="-326135798#0_0" arrivalPos="166.19" arrivalSpeed="16.24" duration="361.00" routeLength="6521.99" waitingTime="0.00" waitingCount="0" stopTime="0.00" timeLoss="93.51" rerouteNo="0" devices="tripinfo_20.1" vType="passenger" speedFactor="1.18" vaporized=""/>
    <tripinfo id="82" depart="410.00" departLane="-319663653#5_0" departPos="5.10" departSpeed="0.00" departDelay="0.00" arrival="464.00" arrivalLane="319512986#4_0" arrivalPos="6.37" arrivalSpeed="13.40" duration="54.00" routeLength="605.11" waitingTime="0.00" waitingCount="0" stopTime="0.00" timeLoss="16.91" rerouteNo="0" devices="tripinfo_82" vType="passenger" speedFactor="1.00" vaporized=""/>
    <tripinfo id="34.1" depart="173.00" departLane="-319558346#0_0" departPos="5.10" departSpeed="0.00" departDelay="3.00" arrival="469.00" arrivalLane="824830847#3_0" arrivalPos="20.66" arrivalSpeed="13.39" duration="296.00" routeLength="3920.97" waitingTime="0.00" waitingCount="0" stopTime="0.00" timeLoss="55.05" rerouteNo="0" devices="tripinfo_34.1" vType="passenger" speedFactor="1.02" vaporized=""/>
    <tripinfo id="82.1" depart="413.00" departLane="-319663653#5_0" departPos="5.10" departSpeed="0.00" departDelay="3.00" arrival="469.00" arrivalLane="319512986#4_0" arrivalPos="6.37" arrivalSpeed="12.66" duration="56.00" routeLength="605.11" waitingTime="0.00" waitingCount="0" stopTime="0.00" timeLoss="16.53" rerouteNo="0" devices="tripinfo_82.1" vType="passenger" speedFactor="0.97" vaporized=""/>
    <tripinfo id="7" depart="35.00" departLane="315927366_0" departPos="5.10" departSpeed="0.00" departDelay="0.00" arrival="477.00" arrivalLane="233249040#2_0" arrivalPos="14.86" arrivalSpeed="14.48" duration="442.00" routeLength="7607.43" waitingTime="2.00" waitingCount="1" stopTime="0.00" timeLoss="103.74" rerouteNo="0" devices="tripinfo_7" vType="passenger" speedFactor="1.05" vaporized=""/>
    <tripinfo id="7.1" depart="38.00" departLane="315927366_0" departPos="5.10" departSpeed="0.00" departDelay="3.00" arrival="480.00" arrivalLane="233249040#2_0" arrivalPos="14.86" arrivalSpeed="15.43" duration="442.00" routeLength="7607.43" waitingTime="1.00" waitingCount="1" stopTime="0.00" timeLoss="128.15" rerouteNo="0" devices="tripinfo_7.1" vType="passenger" speedFactor="1.12" vaporized=""/>
    <tripinfo id="32.1" depart="163.00" departLane="-319659802#7_0" departPos="5.10" departSpeed="0.00" departDelay="3.00" arrival="482.00" arrivalLane="-193442317#13_0" arrivalPos="21.50" arrivalSpeed="10.46" duration="319.00" routeLength="5223.95" waitingTime="1.00" waitingCount="1" stopTime="0.00" timeLoss="75.28" rerouteNo="0" devices="tripinfo_32.1" vType="passenger" speedFactor="1.02" vaporized=""/>
    <tripinfo id="14" depart="70.00" departLane="326151115#2_0" departPos="5.10" departSpeed="0.00" departDelay="0.00" arrival="485.00" arrivalLane="319663654#10_0" arrivalPos="9.80" arrivalSpeed="19.08" duration="415.00" routeLength="6367.62" waitingTime="0.00" waitingCount="0" stopTime="0.00" timeLoss="72.43" rerouteNo="0" devices="tripinfo_14" vType="passenger" speedFactor="0.87" vaporized=""/>
    <tripinfo id="53" depart="265.00" departLane="-826358220#1_0" departPos="5.10" departSpeed="0.00" departDelay="0.00" arrival="485.00" arrivalLane="825727969#0_0" arrivalPos="0.20" arrivalSpeed="7.62" duration="220.00" routeLength="4025.56" waitingTime="0.00" waitingCount="0" stopTime="0.00" timeLoss="49.27" rerouteNo="0" devices="tripinfo_53" vType="passenger" speedFactor="1.06" vaporized=""/>