<?xml version="1.0" encoding="UTF-8"?>

<!-- generated on 2026-04-07T22:45:11.674237+05:30 by Eclipse SUMO GUI 1.25.0
<sumoConfiguration xmlns:xsi="http://www.w3.org/2001/XMLSchema-instance" xsi:noNamespaceSchemaLocation="http://sumo.dlr.de/xsd/sumoConfiguration.xsd">

    <input>
        <net-file value="D:\ResQFlow_ML\sumo\scenarios\mysore.net.xml"/>
        <route-files value="D:\ResQFlow_ML\sumo\scenarios\mysore.rou.xml"/>
        <additional-files value="D:\ResQFlow_ML\sumo\scenarios\mysore.poly.xml,D:\ResQFlow_ML\sumo\scenarios\mysore.add.xml"/>
    </input>

    <output>
        <tripinfo-output value="D:\ResQFlow_ML\sumo\scenarios\tripinfo.xml"/>
    </output>

    <time>
        <begin value="0"/>
        <end value="3600"/>
        <step-length value="1"/>
    </time>

    <processing>
        <ignore-route-errors value="true"/>
        <scale value="1.8"/>
    </processing>

    <report>
        <verbose value="true"/>
        <no-step-log value="false"/>
    </report>

    <traci_server>
        <remote-port value="8813"/>
    </traci_server>

    <gui_only>
        <quit-on-end value="false"/>
        <start value="true"/>
    </gui_only>

</sumoConfiguration>
-->

<tripinfos xmlns:xsi="http://www.w3.org/2001/XMLSchema-instance" xsi:noNamespaceSchemaLocation="http://sumo.dlr.de/xsd/tripinfo_file.xsd">
    <tripinfo id="4" depart="20.00" departLane="-822403023#3_0" departPos="5.10" departSpeed="0.00" departDelay="0.00" arrival="140.00" arrivalLane="-155751165#6_0" arrivalPos="12.15" arrivalSpeed="19.41" duration="120.00" routeLength="1789.73" waitingTime="0.00" waitingCount="0" stopTime="0.00" timeLoss="21.94" rerouteNo="0" devices="tripinfo_4" vType="passenger" speedFactor="0.89" vaporized=""/>
    <tripinfo id="4.1" depart="23.00" departLane="-822403023#3_0" departPos="5.10" departSpeed="0.00" departDelay="3.00" arrival="141.00" arrivalLane="-155751165#6_0" arrivalPos="12.15" arrivalSpeed="20.82" duration="118.00" routeLength="1789.73" waitingTime="0.00" waitingCount="0" stopTime="0.00" timeLoss="26.24" rerouteNo="0" devices="tripinfo_4.1" vType="passenger" speedFactor="0.94" vaporized=""/>
    <tripinfo id="2" depart="10.00" departLane="319663654#12_0" departPos="4.40" departSpeed="0.00" departDelay="0.00" arrival="183.00" arrivalLane="319536932#8_0" arrivalPos="9.22" arrivalSpeed="8.43" duration="173.00" routeLength="2435.74" waitingTime="0.00" waitingCount="0" stopTime="0.00" timeLoss="47.38" rerouteNo="0" devices="tripinfo_2" vType="passenger" speedFactor="1.08" vaporized=""/>
    <tripinfo id="16" depart="80.00" departLane="-360693964#5_0" departPos="5.10" departSpeed="0.00" departDelay="0.00" arrival="186.00" arrivalLane="257431313#1_0" arrivalPos="22.54" arrivalSpeed="11.86" duration="106.00" routeLength="1425.63" waitingTime="0.00" waitingCount="0" stopTime="0.00" timeLoss="19.44" rerouteNo="0" devices="tripinfo_16" vType="passenger" speedFactor="0.93" vaporized=""/>
    <tripinfo id="2.1" depart="13.00" departLane="319663654#12_0" departPos="4.40" departSpeed="0.00" departDelay="3.00" arrival="193.00" arrivalLane="319536932#8_0" arrivalPos="9.22" arrivalSpeed="7.40" duration="180.00" routeLength="2435.74" waitingTime="0.00" waitingCount="0" stopTime="0.00" timeLoss="47.59" rerouteNo="0" devices="tripinfo_2.1" vType="passenger" speedFactor="1.03" vaporized=""/>
    <tripinfo id="12" depart="60.00" departLane="-28186493#4_0" departPos="2.52" departSpeed="0.00" departDelay="0.00" arrival="232.00" arrivalLane="-28195257#1_0" arrivalPos="85.29" arrivalSpeed="13.81" duration="172.00" routeLength="2802.53" waitingTime="0.00" waitingCount="0" stopTime="0.00" timeLoss="34.64" rerouteNo="0" devices="tripinfo_12" vType="passenger" speedFactor="1.01" vaporized=""/>
    <tripinfo id="0" depart="0.00" departLane="31136038#4_0" departPos="5.10" departSpeed="0.00" departDelay="0.00" arrival="240.00" arrivalLane="-1315251841_0" arrivalPos="23.19" arrivalSpeed="13.15" duration="240.00" routeLength="4356.20" waitingTime="0.00" waitingCount="0" stopTime="0.00" timeLoss="52.12" rerouteNo="0" devices="tripinfo_0" vType="passenger" speedFactor="1.06" vaporized=""/>
    <tripinfo id="6" depart="30.00" departLane="-1303398338#0_0" departPos="5.10" departSpeed="0.00" departDelay="0.00" arrival="240.00" arrivalLane="-319540046#2_0" arrivalPos="12.70" arrivalSpeed="13.37" duration="210.00" routeLength="3396.68" waitingTime="16.00" waitingCount="1" stopTime="0.00" timeLoss="70.49" rerouteNo="0" devices="tripinfo_6" vType="passenger" speedFactor="1.03" vaporized=""/>
    <tripinfo id="22" depart="110.00" departLane="-28195257#5_0" departPos="0.20" departSpeed="0.00" departDelay="0.00" arrival="257.00" arrivalLane="-324877342#2_0" arrivalPos="35.41" arrivalSpeed="12.39" duration="147.00" routeLength="2080.35" waitingTime="8.00" waitingCount="1" stopTime="0.00" timeLoss="37.43" rerouteNo="0" devices="tripinfo_22" vType="passenger" speedFactor="0.90" vaporized=""/>
    <tripinfo id="22.1" depart="113.00" departLane="-28195257#5_0" departPos="0.20" departSpeed="0.00" departDelay="3.00" arrival="260.00" arrivalLane="-324877342#2_0" arrivalPos="35.41" arrivalSpeed="13.82" duration="147.00" routeLength="2080.35" waitingTime="7.00" waitingCount="1" stopTime="0.00" timeLoss="49.63" rerouteNo="0" devices="tripinfo_22.1" vType="passenger" speedFactor="1.03" vaporized=""/>
    <tripinfo id="25" depart="125.00" departLane="-320147256_0" departPos="5.10" departSpeed="0.00" departDelay="0.00" arrival="260.00" arrivalLane="824548684_0" arrivalPos="29.68" arrivalSpeed="14.52" duration="135.00" routeLength="1594.00" waitingTime="0.00" waitingCount="0" stopTime="0.00" timeLoss="31.72" rerouteNo="0" devices="tripinfo_25" vType="passenger" speedFactor="1.09" vaporized=""/>
    <tripinfo id="3.1" depart="18.00" departLane="360845850_0" departPos="5.10" departSpeed="0.00" departDelay="3.00" arrival="261.00" arrivalLane="-28186483#5_0" arrivalPos="2.28" arrivalSpeed="13.37" duration="243.00" routeLength="3894.86" waitingTime="0.00" waitingCount="0" stopTime="0.00" timeLoss="70.33" rerouteNo="0" devices="tripinfo_3.1" vType="passenger" speedFactor="1.05" vaporized=""/>
    <tripinfo id="0.1" depart="3.00" departLane="31136038#4_0" departPos="5.10" departSpeed="0.00" departDelay="3.00" arrival="262.00" arrivalLane="-1315251841_0" arrivalPos="23.19" arrivalSpeed="10.07" duration="259.00" routeLength="4356.20" waitingTime="0.00" waitingCount="0" stopTime="0.00" timeLoss="47.76" rerouteNo="0" devices="tripinfo_0.1" vType="passenger" speedFactor="0.94" vaporized=""/>
    <tripinfo id="18" depart="90.00" departLane="360515282#3_0" departPos="5.10" departSpeed="0.00" departDelay="0.00" arrival="267.00" arrivalLane="28186493#8_0" arrivalPos="2.72" arrivalSpeed="7.79" duration="177.00" routeLength="2814.74" waitingTime="0.00" waitingCount="0" stopTime="0.00" timeLoss="30.54" rerouteNo="0" devices="tripinfo_18" vType="passenger" speedFactor="1.01" vaporized=""/>
    <tripinfo id="18.1" depart="93.00" departLane="360515282#3_0" departPos="5.10" departSpeed="0.00" departDelay="3.00" arrival="270.00" arrivalLane="28186493#8_0" arrivalPos="2.72" arrivalSpeed="8.16" duration="177.00" routeLength="2814.74" waitingTime="1.00" waitingCount="1" stopTime="0.00" timeLoss="51.47" rerouteNo="0" devices="tripinfo_18.1" vType="passenger" speedFactor="1.17" vaporized=""/>
    <tripinfo id="25.1" depart="128.00" departLane="-320147256_0" departPos="5.10" departSpeed="0.00" departDelay="3.00" arrival="273.00" arrivalLane="824548684_0" arrivalPos="29.68" arrivalSpeed="13.26" duration="145.00" routeLength="1594.00" waitingTime="0.00" waitingCount="0" stopTime="0.00" timeLoss="32.80" rerouteNo="0" devices="tripinfo_25.1" vType="passenger" speedFactor="1.00" vaporized=""/>
    <tripinfo id="17.1" depart="88.00" departLane="360213518#0_0" departPos="5.10" departSpeed="0.00" departDelay="3.00" arrival="285.00" arrivalLane="28451047#3_0" arrivalPos="31.89" arrivalSpeed="13.43" duration="197.00" routeLength="3181.96" waitingTime="11.00" waitingCount="1" stopTime="0.00" timeLoss="67.35" rerouteNo="0" devices="tripinfo_17.1" vType="passenger" speedFactor="1.15" vaporized=""/>
    <tripinfo id="17" depart="85.00" departLane="360213518#0_0" departPos="5.10" departSpeed="0.00" departDelay="0.00" arrival="288.00" arrivalLane="28451047#3_0" arrivalPos="31.89" arrivalSpeed="15.05" duration="203.00" routeLength="3181.96" waitingTime="16.00" waitingCount="1" stopTime="0.00" timeLoss="75.83" rerouteNo="0" devices="tripinfo_17" vType="passenger" speedFactor="1.18" vaporized=""/>
    <tripinfo id="3" depart="15.00" departLane="360845850_0" departPos="5.10" departSpeed="0.00" departDelay="0.00" arrival="291.00" arrivalLane="-28186483#5_0" arrivalPos="2.28" arrivalSpeed="10.60" duration="276.00" routeLength="3894.86" waitingTime="0.00" waitingCount="0" stopTime="0.00" timeLoss="56.86" rerouteNo="0" devices="tripinfo_3" vType="passenger" speedFactor="0.83" vaporized=""/>
    <tripinfo id="5.1" depart="28.00" departLane="-319657621#1_0" departPos="5.10" departSpeed="0.00" departDelay="3.00" arrival="296.00" arrivalLane="1315248296#0_0" arrivalPos="13.53" arrivalSpeed="10.55" duration="268.00" routeLength="5068.67" waitingTime="2.00" waitingCount="1" stopTime="0.00" timeLoss="76.59" rerouteNo="0" devices="tripinfo_5.1" vType="passenger" speedFactor="1.09" vaporized=""/>
    <tripinfo id="12.1" depart="63.00" departLane="-28186493#4_0" departPos="2.52" departSpeed="0.00" departDelay="3.00" arrival="297.00" arrivalLane="-28195257#1_0" arrivalPos="85.29" arrivalSpeed="12.38" duration="234.00" routeLength="2802.53" waitingTime="41.00" waitingCount="1" stopTime="0.00" timeLoss="89.40" rerouteNo="0" devices="tripinfo_12.1" vType="passenger" speedFactor="0.97" vaporized=""/>
    <tripinfo id="13" depart="65.00" departLane="360330381#1_0" departPos="5.10" departSpeed="0.00" departDelay="0.00" arrival="297.00" arrivalLane="28245990#6_0" arrivalPos="21.58" arrivalSpeed="12.00" duration="232.00" routeLength="3160.20" waitingTime="0.00" waitingCount="0" stopTime="0.00" timeLoss="49.52" rerouteNo="0" devices="tripinfo_13" vType="passenger" speedFactor="0.89" vaporized=""/>
    <tripinfo id="24" depart="120.00" departLane="-360688870#1_0" departPos="5.10" departSpeed="0.00" departDelay="0.00" arrival="297.00" arrivalLane="-319562610#1_0" arrivalPos="82.63" arrivalSpeed="14.01" duration="177.00" routeLength="3083.75" waitingTime="0.00" waitingCount="0" stopTime="0.00" timeLoss="36.89" rerouteNo="0" devices="tripinfo_24" vType="passenger" speedFactor="1.04" vaporized=""/>
    <tripinfo id="24.1" depart="123.00" departLane="-360688870#1_0" departPos="5.10" departSpeed="0.00" departDelay="3.00" arrival="301.00" arrivalLane="-319562610#1_0" arrivalPos="82.63" arrivalSpeed="13.47" duration="178.00" routeLength="3083.75" waitingTime="0.00" waitingCount="0" stopTime="0.00" timeLoss="39.41" rerouteNo="0" devices="tripinfo_24.1" vType="passenger" speedFactor="1.04" vaporized=""/>
    <tripinfo id="1" depart="5.00" departLane="-324871564_0" departPos="5.10" departSpeed="0.00" departDelay="0.00" arrival="303.00" arrivalLane="-319659786#1_0" arrivalPos="75.28" arrivalSpeed="12.95" duration="298.00" routeLength="4295.69" waitingTime="5.00" waitingCount="1" stopTime="0.00" timeLoss="72.17" rerouteNo="0" devices="tripinfo_1" vType="passenger" speedFactor="1.01" vaporized=""/>
    <tripinfo id="27" depart="135.00" departLane="-319392760#3_0" departPos="5.10" departSpeed="0.00" departDelay="0.00" arrival="304.00" arrivalLane="319663205#1_0" arrivalPos="21.93" arrivalSpeed="11.80" duration="169.00" routeLength="2275.26" waitingTime="0.00" waitingCount="0" stopTime="0.00" timeLoss="33.15" rerouteNo="0" devices="tripinfo_27" vType="passenger" speedFactor="0.88" vaporized=""/>
    <tripinfo id="13.1" depart="68.00" departLane="360330381#1_0" departPos="5.10" departSpeed="0.00" departDelay="3.00" arrival="314.00" arrivalLane="28245990#6_0" arrivalPos="21.58" arrivalSpeed="10.48" duration="246.00" routeLength="3160.20" waitingTime="0.00" waitingCount="0" stopTime="0.00" timeLoss="50.34" rerouteNo="0" devices="tripinfo_13.1" vType="passenger" speedFactor="0.83" vaporized=""/>
    <tripinfo id="27.1" depart="138.00" departLane="-319392760#3_0" departPos="5.10" departSpeed="0.00" departDelay="3.00" arrival="316.00" arrivalLane="319663205#1_0" arrivalPos="21.93" arrivalSpeed="10.56" duration="178.00" routeLength="2275.26" waitingTime="0.00" waitingCount="0" stopTime="0.00" timeLoss="37.90" rerouteNo="0" devices="tripinfo_27.1" vType="passenger" speedFactor="0.85" vaporized=""/>
    <tripinfo id="5" depart="25.00" departLane="-319657621#1_0" departPos="5.10" departSpeed="0.00" departDelay="0.00" arrival="332.00" arrivalLane="1315248296#0_0" arrivalPos="13.53" arrivalSpeed="8.12" duration="307.00" routeLength="5069.87" waitingTime="0.00" waitingCount="0" stopTime="0.00" timeLoss="63.21" rerouteNo="0" devices="tripinfo_5" vType="passenger" speedFactor="0.86" vaporized=""/>
    <tripinfo id="47" depart="235.00" departLane="86263898#12_0" departPos="5.10" departSpeed="0.00" departDelay="0.00" arrival="335.00" arrivalLane="231429519#4_0" arrivalPos="20.68" arrivalSpeed="14.82" duration="100.00" routeLength="1618.60" waitingTime="0.00" waitingCount="0" stopTime="0.00" timeLoss="23.71" rerouteNo="0" devices="tripinfo_47" vType="passenger" speedFactor="1.15" vaporized=""/>
    <tripinfo id="48" depart="240.00" departLane="826411002#5_0" departPos="5.10" departSpeed="0.00" departDelay="0.00" arrival="341.00" arrivalLane="360515435#2_0" arrivalPos="26.15" arrivalSpeed="12.89" duration="101.00" routeLength="1439.79" waitingTime="0.00" waitingCount="0" stopTime="0.00" timeLoss="21.51" rerouteNo="0" devices="tripinfo_48" vType="passenger" speedFactor="1.00" vaporized=""/>
    <tripinfo id="48.1" depart="243.00" departLane="826411002#5_0" departPos="5.10" departSpeed="0.00" departDelay="3.00" arrival="343.00" arrivalLane="360515435#2_0" arrivalPos="26.15" arrivalSpeed="13.55" duration="100.00" routeLength="1439.79" waitingTime="0.00" waitingCount="0" stopTime="0.00" timeLoss="23.78" rerouteNo="0" devices="tripinfo_48.1" vType="passenger" speedFactor="1.04" vaporized=""/>
    <tripinfo id="47.1" depart="238.00" departLane="86263898#12_0" departPos="5.10" departSpeed="0.00" departDelay="3.00" arrival="348.00" arrivalLane="231429519#4_0" arrivalPos="20.68" arrivalSpeed="12.34" duration="110.00" routeLength="1618.60" waitingTime="0.00" waitingCount="0" stopTime="0.00" timeLoss="21.44" rerouteNo="0" devices="tripinfo_47.1" vType="passenger" speedFactor="0.98" vaporized=""/>
    <tripinfo id="35" depart="175.00" departLane="360691183#1_0" departPos="5.10" departSpeed="0.00" departDelay="0.00" arrival="378.00" arrivalLane="-326190897#6_0" arrivalPos="12.68" arrivalSpeed="9.16" duration="203.00" routeLength="2876.78" waitingTime="0.00" waitingCount="0" stopTime="0.00" timeLoss="54.52" rerouteNo="0" devices="tripinfo_35" vType="passenger" speedFactor="0.99" vaporized=""/>
    <tripinfo id="59" depart="295.00" departLane="320145108#1_0" departPos="5.10" departSpeed="0.00" departDelay="0.00" arrival="382.00" arrivalLane="233244374#5_0" arrivalPos="110.79" arrivalSpeed="22.42" duration="87.00" routeLength="1339.76" waitingTime="0.00" waitingCount="0" stopTime="0.00" timeLoss="17.70" rerouteNo="0" devices="tripinfo_59" vType="passenger" speedFactor="1.01" vaporized=""/>
    <tripinfo id="59.1" depart="298.00" departLane="320145108#1_0" departPos="5.10" departSpeed="0.00" departDelay="3.00" arrival="386.00" arrivalLane="233244374#5_0" arrivalPos="110.79" arrivalSpeed="21.83" duration="88.00" routeLength="1339.76" waitingTime="0.00" waitingCount="0" stopTime="0.00" timeLoss="19.97" rerouteNo="0" devices="tripinfo_59.1" vType="passenger" speedFactor="1.03" vaporized=""/>
    <tripinfo id="35.1" depart="178.00" departLane="360691183#1_0" departPos="5.10" departSpeed="0.00" departDelay="3.00" arrival="387.00" arrivalLane="-326190897#6_0" arrivalPos="12.68" arrivalSpeed="8.35" duration="209.00" routeLength="2876.78" waitingTime="0.00" waitingCount="0" stopTime="0.00" timeLoss="52.17" rerouteNo="0" devices="tripinfo_35.1" vType="passenger" speedFactor="0.94" vaporized=""/>
</tripinfos>
