<?xml version="1.0" encoding="UTF-8"?>

<!-- generated on 2026-04-09T22:26:48.056925+05:30 by Eclipse SUMO GUI 1.25.0
<sumoConfiguration xmlns:xsi="http://www.w3.org/2001/XMLSchema-instance" xsi:noNamespaceSchemaLocation="http://sumo.dlr.de/xsd/sumoConfiguration.xsd">

    <input>
        <net-file value="D:\ResQFlow_ML\sumo\scenarios\mysore.net.xml"/>
        <route-files value="D:\ResQFlow_ML\sumo\scenarios\mysore.rou.xml"/>
        <additional-files value="D:\ResQFlow_ML\sumo\scenarios\mysore.poly.xml,D:\ResQFlow_ML\sumo\scenarios\mysore.add.xml"/>
    </input>

    <output>
        <tripinfo-output value="D:\ResQFlow_ML\sumo\scenarios\tripinfo.xml"/>
    </output>

    <time>
        <begin value="0"/>
        <end value="3600"/>
        <step-length value="1"/>
    </time>

    <processing>
        <ignore-route-errors value="true"/>
        <scale value="1.0"/>
    </processing>

    <report>
        <verbose value="true"/>
        <no-step-log value="false"/>
    </report>

    <traci_server>
        <remote-port value="8813"/>
    </traci_server>

    <gui_only>
        <quit-on-end value="false"/>
        <start value="true"/>
    </gui_only>

</sumoConfiguration>
-->

<tripinfos xmlns:xsi="http://www.w3.org/2001/XMLSchema-instance" xsi:noNamespaceSchemaLocation="http://sumo.dlr.de/xsd/tripinfo_file.xsd">
    <tripinfo id="4" depart="20.00" departLane="-822403023#3_0" departPos="5.10" departSpeed="0.00" departDelay="0.00" arrival="127.00" arrivalLane="-155751165#6_0" arrivalPos="12.15" arrivalSpeed="22.64" duration="107.00" routeLength="1789.73" waitingTime="0.00" waitingCount="0" stopTime="0.00" timeLoss="23.59" rerouteNo="0" devices="tripinfo_4" vType="passenger" speedFactor="1.03" vaporized=""/>
    <tripinfo id="2" depart="10.00" departLane="319663654#12_0" departPos="4.40" departSpeed="0.00" departDelay="0.00" arrival="188.00" arrivalLane="319536932#8_0" arrivalPos="9.22" arrivalSpeed="7.80" duration="178.00" routeLength="2435.74" waitingTime="0.00" waitingCount="0" stopTime="0.00" timeLoss="43.95" rerouteNo="0" devices="tripinfo_2" vType="passenger" speedFactor="1.01" vaporized=""/>
    <tripinfo id="16" depart="80.00" departLane="-360693964#5_0" departPos="5.10" departSpeed="0.00" departDelay="0.00" arrival="191.00" arrivalLane="257431313#1_0" arrivalPos="22.54" arrivalSpeed="11.97" duration="111.00" routeLength="1425.63" waitingTime="0.00" waitingCount="0" stopTime="0.00" timeLoss="18.93" rerouteNo="0" devices="tripinfo_16" vType="passenger" speedFactor="0.88" vaporized=""/>
    <tripinfo id="12" depart="60.00" departLane="-28186493#4_0" departPos="2.52" departSpeed="0.00" departDelay="0.00" arrival="228.00" arrivalLane="-28195257#1_0" arrivalPos="85.29" arrivalSpeed="13.95" duration="168.00" routeLength="2802.53" waitingTime="0.00" waitingCount="0" stopTime="0.00" timeLoss="35.21" rerouteNo="0" devices="tripinfo_12" vType="passenger" speedFactor="1.05" vaporized=""/>
    <tripinfo id="6" depart="30.00" departLane="-1303398338#0_0" departPos="5.10" departSpeed="0.00" departDelay="0.00" arrival="236.00" arrivalLane="-319540046#2_0" arrivalPos="12.70" arrivalSpeed="14.43" duration="206.00" routeLength="3396.68" waitingTime="17.00" waitingCount="1" stopTime="0.00" timeLoss="68.39" rerouteNo="0" devices="tripinfo_6" vType="passenger" speedFactor="1.05" vaporized=""/>
    <tripinfo id="0" depart="0.00" departLane="31136038#4_0" departPos="5.10" departSpeed="0.00" departDelay="0.00" arrival="237.00" arrivalLane="-1315251841_0" arrivalPos="23.19" arrivalSpeed="11.57" duration="237.00" routeLength="4356.20" waitingTime="0.00" waitingCount="0" stopTime="0.00" timeLoss="50.07" rerouteNo="0" devices="tripinfo_0" vType="passenger" speedFactor="1.06" vaporized=""/>
    <tripinfo id="22" depart="110.00" departLane="-28195257#5_0" departPos="0.20" departSpeed="0.00" departDelay="0.00" arrival="239.00" arrivalLane="-324877342#2_0" arrivalPos="35.41" arrivalSpeed="12.36" duration="129.00" routeLength="2080.35" waitingTime="0.00" waitingCount="0" stopTime="0.00" timeLoss="28.47" rerouteNo="0" devices="tripinfo_22" vType="passenger" speedFactor="0.97" vaporized=""/>
    <tripinfo id="3" depart="15.00" departLane="360845850_0" departPos="5.10" departSpeed="0.00" departDelay="0.00" arrival="247.00" arrivalLane="-28186483#5_0" arrivalPos="2.28" arrivalSpeed="14.38" duration="232.00" routeLength="3894.86" waitingTime="0.00" waitingCount="0" stopTime="0.00" timeLoss="65.00" rerouteNo="0" devices="tripinfo_3" vType="passenger" speedFactor="1.08" vaporized=""/>
    <tripinfo id="13" depart="65.00" departLane="360330381#1_0" departPos="5.10" departSpeed="0.00" departDelay="0.00" arrival="264.00" arrivalLane="28245990#6_0" arrivalPos="21.58" arrivalSpeed="12.50" duration="199.00" routeLength="3160.20" waitingTime="0.00" waitingCount="0" stopTime="0.00" timeLoss="55.13" rerouteNo="0" devices="tripinfo_13" vType="passenger" speedFactor="1.12" vaporized=""/>
    <tripinfo id="18" depart="90.00" departLane="360515282#3_0" departPos="5.10" departSpeed="0.00" departDelay="0.00" arrival="279.00" arrivalLane="28186493#8_0" arrivalPos="2.72" arrivalSpeed="7.04" duration="189.00" routeLength="2814.74" waitingTime="0.00" waitingCount="0" stopTime="0.00" timeLoss="32.05" rerouteNo="0" devices="tripinfo_18" vType="passenger" speedFactor="0.94" vaporized=""/>
    <tripinfo id="25" depart="125.00" departLane="-320147256_0" departPos="5.10" departSpeed="0.00" departDelay="0.00" arrival="282.00" arrivalLane="824548684_0" arrivalPos="29.68" arrivalSpeed="11.54" duration="157.00" routeLength="1594.00" waitingTime="0.00" waitingCount="0" stopTime="0.00" timeLoss="28.04" rerouteNo="0" devices="tripinfo_25" vType="passenger" speedFactor="0.87" vaporized=""/>
    <tripinfo id="27" depart="135.00" departLane="-319392760#3_0" departPos="5.10" departSpeed="0.00" departDelay="0.00" arrival="295.00" arrivalLane="319663205#1_0" arrivalPos="21.93" arrivalSpeed="12.68" duration="160.00" routeLength="2275.26" waitingTime="0.00" waitingCount="0" stopTime="0.00" timeLoss="32.37" rerouteNo="0" devices="tripinfo_27" vType="passenger" speedFactor="0.95" vaporized=""/>
    <tripinfo id="17" depart="85.00" departLane="360213518#0_0" departPos="5.10" departSpeed="0.00" departDelay="0.00" arrival="297.00" arrivalLane="28451047#3_0" arrivalPos="31.89" arrivalSpeed="11.93" duration="212.00" routeLength="3181.96" waitingTime="7.00" waitingCount="1" stopTime="0.00" timeLoss="52.57" rerouteNo="0" devices="tripinfo_17" vType="passenger" speedFactor="0.94" vaporized=""/>
    <tripinfo id="1" depart="5.00" departLane="-324871564_0" departPos="5.10" departSpeed="0.00" departDelay="0.00" arrival="315.00" arrivalLane="-319659786#1_0" arrivalPos="75.28" arrivalSpeed="12.82" duration="310.00" routeLength="4295.69" waitingTime="2.00" waitingCount="1" stopTime="0.00" timeLoss="66.69" rerouteNo="0" devices="tripinfo_1" vType="passenger" speedFactor="0.94" vaporized=""/>
    <tripinfo id="24" depart="120.00" departLane="-360688870#1_0" departPos="5.10" departSpeed="0.00" departDelay="0.00" arrival="327.00" arrivalLane="-319562610#1_0" arrivalPos="82.63" arrivalSpeed="11.25" duration="207.00" routeLength="3083.75" waitingTime="0.00" waitingCount="0" stopTime="0.00" timeLoss="31.59" rerouteNo="0" devices="tripinfo_24" vType="passenger" speedFactor="0.83" vaporized=""/>
    <tripinfo id="5" depart="25.00" departLane="-319657621#1_0" departPos="5.10" departSpeed="0.00" departDelay="0.00" arrival="338.00" arrivalLane="1315248296#0_0" arrivalPos="13.53" arrivalSpeed="8.39" duration="313.00" routeLength="5069.87" waitingTime="0.00" waitingCount="0" stopTime="0.00" timeLoss="60.42" rerouteNo="0" devices="tripinfo_5" vType="passenger" speedFactor="0.83" vaporized=""/>
    <tripinfo id="48" depart="240.00" departLane="826411002#5_0" departPos="5.10" departSpeed="0.00" departDelay="0.00" arrival="350.00" arrivalLane="360515435#2_0" arrivalPos="26.15" arrivalSpeed="11.70" duration="110.00" routeLength="1439.79" waitingTime="0.00" waitingCount="0" stopTime="0.00" timeLoss="20.34" rerouteNo="0" devices="tripinfo_48" vType="passenger" speedFactor="0.88" vaporized=""/>
    <tripinfo id="47" depart="235.00" departLane="86263898#12_0" departPos="5.10" departSpeed="0.00" departDelay="0.00" arrival="352.00" arrivalLane="231429519#4_0" arrivalPos="20.68" arrivalSpeed="12.42" duration="117.00" routeLength="1618.60" waitingTime="0.00" waitingCount="0" stopTime="0.00" timeLoss="20.37" rerouteNo="0" devices="tripinfo_47" vType="passenger" speedFactor="0.90" vaporized=""/>
    <tripinfo id="35" depart="175.00" departLane="360691183#1_0" departPos="5.10" departSpeed="0.00" departDelay="0.00" arrival="374.00" arrivalLane="-326190897#6_0" arrivalPos="12.68" arrivalSpeed="10.22" duration="199.00" routeLength="2876.78" waitingTime="0.00" waitingCount="0" stopTime="0.00" timeLoss="54.26" rerouteNo="0" devices="tripinfo_35" vType="passenger" speedFactor="1.02" vaporized=""/>
    <tripinfo id="59" depart="295.00" departLane="320145108#1_0" departPos="5.10" departSpeed="0.00" departDelay="0.00" arrival="384.00" arrivalLane="233244374#5_0" arrivalPos="110.79" arrivalSpeed="21.17" duration="89.00" routeLength="1339.76" waitingTime="0.00" waitingCount="0" stopTime="0.00" timeLoss="16.57" rerouteNo="0" devices="tripinfo_59" vType="passenger" speedFactor="0.97" vaporized=""/>
    <tripinfo id="28" depart="140.00" departLane="-317375239_0" departPos="5.10" departSpeed="0.00" departDelay="0.00" arrival="388.00" arrivalLane="-360829795#1_0" arrivalPos="27.80" arrivalSpeed="14.49" duration="248.00" routeLength="3636.05" waitingTime="30.00" waitingCount="1" stopTime="0.00" timeLoss="89.45" rerouteNo="0" devices="tripinfo_28" vType="passenger" speedFactor="1.13" vaporized=""/>
    <tripinfo id="38" depart="190.00" departLane="-320145113#1_0" departPos="5.10" departSpeed="0.00" departDelay="0.00" arrival="391.00" arrivalLane="-319887848#1_0" arrivalPos="129.69" arrivalSpeed="14.74" duration="201.00" routeLength="2724.25" waitingTime="0.00" waitingCount="0" stopTime="0.00" timeLoss="45.03" rerouteNo="0" devices="tripinfo_38" vType="passenger" speedFactor="1.10" vaporized=""/>
    <tripinfo id="8" depart="40.00" departLane="-319657642#2_0" departPos="5.10" departSpeed="0.00" departDelay="0.00" arrival="402.00" arrivalLane="28213535#3_0" arrivalPos="32.85" arrivalSpeed="12.18" duration="362.00" routeLength="5827.18" waitingTime="13.00" waitingCount="1" stopTime="0.00" timeLoss="85.35" rerouteNo="0" devices="tripinfo_8" vType="passenger" speedFactor="0.94" vaporized=""/>
    <tripinfo id="31" depart="155.00" departLane="360318384#4_0" departPos="5.10" departSpeed="0.00" departDelay="0.00" arrival="420.00" arrivalLane="324877345_0" arrivalPos="249.09" arrivalSpeed="15.73" duration="265.00" routeLength="4647.13" waitingTime="9.00" waitingCount="2" stopTime="0.00" timeLoss="86.17" rerouteNo="0" devices="tripinfo_31" vType="passenger" speedFactor="1.15" vaporized=""/>
    <tripinfo id="62" depart="310.00" departLane="-1256472120#0_0" departPos="5.10" departSpeed="0.00" departDelay="0.00" arrival="424.00" arrivalLane="822236221#2_0" arrivalPos="4.92" arrivalSpeed="11.83" duration="114.00" routeLength="1790.14" waitingTime="0.00" waitingCount="0" stopTime="0.00" timeLoss="22.39" rerouteNo="0" devices="tripinfo_62" vType="passenger" speedFactor="1.02" vaporized=""/>
    <tripinfo id="39" depart="195.00" departLane="258147004#5_0" departPos="5.10" departSpeed="0.00" departDelay="0.00" arrival="427.00" arrivalLane="-320147263#6_0" arrivalPos="69.56" arrivalSpeed="11.43" duration="232.00" routeLength="3492.71" waitingTime="0.00" waitingCount="0" stopTime="0.00" timeLoss="32.22" rerouteNo="0" devices="tripinfo_39" vType="passenger" speedFactor="0.90" vaporized=""/>
    <tripinfo id="29" depart="145.00" departLane="86260519#11_0" departPos="5.10" departSpeed="0.00" departDelay="0.00" arrival="434.00" arrivalLane="313176067#13_0" arrivalPos="55.79" arrivalSpeed="19.98" duration="289.00" routeLength="4652.21" waitingTime="0.00" waitingCount="0" stopTime="0.00" timeLoss="42.64" rerouteNo="0" devices="tripinfo_29" vType="passenger" speedFactor="0.93" vaporized=""/>
    <tripinfo id="30" depart="150.00" departLane="257422313#2_0" departPos="5.10" departSpeed="0.00" departDelay="0.00" arrival="439.00" arrivalLane="319536971#7_0" arrivalPos="17.96" arrivalSpeed="10.19" duration="289.00" routeLength="4573.74" waitingTime="0.00" waitingCount="0" stopTime="0.00" timeLoss="70.65" rerouteNo="0" devices="tripinfo_30" vType="passenger" speedFactor="1.18" vaporized=""/>
    <tripinfo id="44" depart="220.00" departLane="-28226039_0" departPos="5.10" departSpeed="0.00" departDelay="0.00" arrival="439.00" arrivalLane="28496132#5_0" arrivalPos="15.70" arrivalSpeed="13.47" duration="219.00" routeLength="2990.12" waitingTime="0.00" waitingCount="0" stopTime="0.00" timeLoss="45.83" rerouteNo="0" devices="tripinfo_44" vType="passenger" speedFactor="1.04" vaporized=""/>
    <tripinfo id="15" depart="75.00" departLane="231429519#5_0" departPos="5.10" departSpeed="0.00" departDelay="0.00" arrival="443.00" arrivalLane="826414528#10_0" arrivalPos="16.36" arrivalSpeed="9.93" duration="368.00" routeLength="5312.62" waitingTime="0.00" waitingCount="0" stopTime="0.00" timeLoss="59.06" rerouteNo="0" devices="tripinfo_15" vType="passenger" speedFactor="0.93" vaporized=""/>
    <tripinfo id="11" depart="55.00" departLane="826123049_0" departPos="5.10" departSpeed="0.00" departDelay="0.00" arrival="446.00" arrivalLane="-360318388#2_0" arrivalPos="28.72" arrivalSpeed="13.29" duration="391.00" routeLength="6453.05" waitingTime="0.00" waitingCount="0" stopTime="0.00" timeLoss="95.12" rerouteNo="0" devices="tripinfo_11" vType="passenger" speedFactor="1.03" vaporized=""/>
    <tripinfo id="46" depart="230.00" departLane="-234376524#3_0" departPos="3.07" departSpeed="0.00" departDelay="0.00" arrival="451.00" arrivalLane="-360833416_0" arrivalPos="118.65" arrivalSpeed="13.16" duration="221.00" routeLength="3305.71" waitingTime="11.00" waitingCount="1" stopTime="0.00" timeLoss="64.63" rerouteNo="0" devices="tripinfo_46" vType="passenger" speedFactor="1.00" vaporized=""/>
    <tripinfo id="14" depart="70.00" departLane="326151115#2_0" departPos="5.10" departSpeed="0.00" departDelay="0.00" arrival="453.00" arrivalLane="319663654#10_0" arrivalPos="9.80" arrivalSpeed="21.88" duration="383.00" routeLength="6367.62" waitingTime="0.00" waitingCount="0" stopTime="0.00" timeLoss="78.51" rerouteNo="0" devices="tripinfo_14" vType="passenger" speedFactor="0.99" vaporized=""/>
    <tripinfo id="9" depart="45.00" departLane="326150420#0_0" departPos="5.10" departSpeed="0.00" departDelay="0.00" arrival="461.00" arrivalLane="319542686#2_0" arrivalPos="29.56" arrivalSpeed="11.59" duration="416.00" routeLength="5103.07" waitingTime="0.00" waitingCount="0" stopTime="0.00" timeLoss="52.05" rerouteNo="0" devices="tripinfo_9" vType="passenger" speedFactor="0.86" vaporized=""/>
    <tripinfo id="82" depart="410.00" departLane="-319663653#5_0" departPos="5.10" departSpeed="0.00" departDelay="0.00" arrival="465.00" arrivalLane="319512986#4_0" arrivalPos="6.37" arrivalSpeed="13.07" duration="55.00" routeLength="605.11" waitingTime="0.00" waitingCount="0" stopTime="0.00" timeLoss="17.24" rerouteNo="0" devices="tripinfo_82" vType="passenger" speedFactor="1.02" vaporized=""/>
    <tripinfo id="33" depart="165.00" departLane="-326190265#3_0" departPos="5.10" departSpeed="0.00" departDelay="0.00" arrival="468.00" arrivalLane="-324867237#1_0" arrivalPos="0.20" arrivalSpeed="7.87" duration="303.00" routeLength="5288.11" waitingTime="0.00" waitingCount="0" stopTime="0.00" timeLoss="69.97" rerouteNo="0" devices="tripinfo_33" vType="passenger" speedFactor="1.17" vaporized=""/>
    <tripinfo id="34" depart="170.00" departLane="-319558346#0_0" departPos="5.10" departSpeed="0.00" departDelay="0.00" arrival="470.00" arrivalLane="824830847#3_0" arrivalPos="20.66" arrivalSpeed="13.80" duration="300.00" routeLength="3920.97" waitingTime="0.00" waitingCount="0" stopTime="0.00" timeLoss="53.36" rerouteNo="0" devices="tripinfo_34" vType="passenger" speedFactor="0.99" vaporized=""/>
    <tripinfo id="57" depart="285.00" departLane="-326137645#0_0" departPos="5.10" departSpeed="0.00" departDelay="0.00" arrival="478.00" arrivalLane="313176060#7_0" arrivalPos="27.04" arrivalSpeed="14.08" duration="193.00" routeLength="2917.44" waitingTime="0.00" waitingCount="0" stopTime="0.00" timeLoss="31.08" rerouteNo="0" devices="tripinfo_57" vType="passenger" speedFactor="1.14" vaporized=""/>
    <tripinfo id="53" depart="265.00" departLane="-826358220#1_0" departPos="5.10" departSpeed="0.00" departDelay="0.00" arrival="480.00" arrivalLane="825727969#0_0" arrivalPos="0.20" arrivalSpeed="8.56" duration="215.00" routeLength="4025.56" waitingTime="0.00" waitingCount="0" stopTime="0.00" timeLoss="50.95" rerouteNo="0" devices="tripinfo_53" vType="passenger" speedFactor="1.10" vaporized=""/>
    <tripinfo id="32" depart="160.00" departLane="-319659802#7_0" departPos="5.10" departSpeed="0.00" departDelay="0.00" arrival="484.00" arrivalLane="-193442317#13_0" arrivalPos="21.50" arrivalSpeed="10.99" duration="324.00" routeLength="5223.95" waitingTime="2.00" waitingCount="1" stopTime="0.00" timeLoss="72.10" rerouteNo="0" devices="tripinfo_32" vType="passenger" speedFactor="1.01" vaporized=""/>
    <tripinfo id="58" depart="290.00" departLane="28245970#11_0" departPos="3.55" departSpeed="0.00" departDelay="0.00" arrival="485.00" arrivalLane="-316003518_0" arrivalPos="113.54" arrivalSpeed="13.71" duration="195.00" routeLength="2690.94" waitingTime="0.00" waitingCount="0" stopTime="0.00" timeLoss="31.40" rerouteNo="0" devices="tripinfo_58" vType="passenger" speedFactor="1.02" vaporized=""/>
    <tripinfo id="10" depart="50.00" departLane="-360315596_0" departPos="5.10" departSpeed="0.00" departDelay="0.00" arrival="494.00" arrivalLane="-316169371#1_0" arrivalPos="42.80" arrivalSpeed="15.06" duration="444.00" routeLength="7700.63" waitingTime="8.00" waitingCount="1" stopTime="0.00" timeLoss="105.86" rerouteNo="0" devices="tripinfo_10" vType="passenger" speedFactor="1.09" vaporized=""/>
    <tripinfo id="19" depart="95.00" departLane="319542683#3_0" departPos="5.10" departSpeed="0.00" departDelay="0.00" arrival="496.00" arrivalLane="-231431523#8_0" arrivalPos="5.96" arrivalSpeed="9.90" duration="401.00" routeLength="7203.55" waitingTime="7.00" waitingCount="1" stopTime="0.00" timeLoss="84.31" rerouteNo="0" devices="tripinfo_19" vType="passenger" speedFactor="1.16" vaporized=""/>
    <tripinfo id="55" depart="275.00" departLane="1244097847#0_0" departPos="5.10" departSpeed="0.00" departDelay="0.00" arrival="497.00" arrivalLane="-319536897#13_0" arrivalPos="9.99" arrivalSpeed="7.17" duration="222.00" routeLength="3288.46" waitingTime="0.00" waitingCount="0" stopTime="0.00" timeLoss="65.90" rerouteNo="0" devices="tripinfo_55" vType="passenger" speedFactor="1.00" vaporized=""/>
    <tripinfo id="7" depart="35.00" departLane="315927366_0" departPos="5.10" departSpeed="0.00" departDelay="0.00" arrival="520.00" arrivalLane="233249040#2_0" arrivalPos="14.86" arrivalSpeed="11.15" duration="485.00" routeLength="7607.43" waitingTime="0.00" waitingCount="0" stopTime="0.00" timeLoss="84.34" rerouteNo="0" devices="tripinfo_7" vType="passenger" speedFactor="0.89" vaporized=""/>
    <tripinfo id="49" depart="245.00" departLane="-1202276819_0" departPos="5.10" departSpeed="0.00" departDelay="0.00" arrival="525.00" arrivalLane="319659807#1_0" arrivalPos="89.57" arrivalSpeed="10.84" duration="280.00" routeLength="3873.12" waitingTime="0.00" waitingCount="0" stopTime="0.00" timeLoss="59.27" rerouteNo="0" devices="tripinfo_49" vType="passenger" speedFactor="0.85" vaporized=""/>
    <tripinfo id="20" depart="100.00" departLane="-319659794#3_0" departPos="5.10" departSpeed="0.00" departDelay="0.00" arrival="527.00" arrivalLane="-326135798#0_0" arrivalPos="166.19" arrivalSpeed="13.37" duration="427.00" routeLength="6521.99" waitingTime="36.00" waitingCount="1" stopTime="0.00" timeLoss="119.40" rerouteNo="0" devices="tripinfo_20" vType="passenger" speedFactor="1.02" vaporized=""/>
    <tripinfo id="37" depart="185.00" departLane="632625104#0_0" departPos="5.10" departSpeed="0.00" departDelay="0.00" arrival="528.00" arrivalLane="-86258060#2_0" arrivalPos="12.29" arrivalSpeed="11.43" duration="343.00" routeLength="6526.29" waitingTime="0.00" waitingCount="0" stopTime="0.00" timeLoss="84.10" rerouteNo="0" devices="tripinfo_37" vType="passenger" speedFactor="1.18" vaporized=""/>
    <tripinfo id="23" depart="115.00" departLane="28496282_0" departPos="5.10" departSpeed="0.00" departDelay="0.00" arrival="531.00" arrivalLane="-360688891#1_0" arrivalPos="27.04" arrivalSpeed="12.15" duration="416.00" routeLength="5358.17" waitingTime="0.00" waitingCount="0" stopTime="0.00" timeLoss="63.85" rerouteNo="0" devices="tripinfo_23" vType="passenger" speedFactor="0.89" vaporized=""/>
    <tripinfo id="40" depart="200.00" departLane="28186497#5_0" departPos="5.10" departSpeed="0.00" departDelay="0.00" arrival="531.00" arrivalLane="396121469#1_0" arrivalPos="19.25" arrivalSpeed="27.62" duration="331.00" routeLength="4422.99" waitingTime="65.00" waitingCount="1" stopTime="0.00" timeLoss="151.87" rerouteNo="0" devices="tripinfo_40" vType="passenger" speedFactor="1.03" vaporized=""/>
    <tripinfo id="78" depart="390.00" departLane="-319659807#5_0" departPos="5.10" departSpeed="0.00" departDelay="0.00" arrival="533.00" arrivalLane="-319658454#2_0" arrivalPos="26.36" arrivalSpeed="13.69" duration="143.00" routeLength="2234.69" waitingTime="0.00" waitingCount="0" stopTime="0.00" timeLoss="36.49" rerouteNo="0" devices="tripinfo_78" vType="passenger" speedFactor="1.01" vaporized=""/>
    <tripinfo id="93" depart="465.00" departLane="-319536962#5_0" departPos="5.10" departSpeed="0.00" departDelay="0.00" arrival="544.00" arrivalLane="-826411021#1_0" arrivalPos="24.06" arrivalSpeed="12.19" duration="79.00" routeLength="719.05" waitingTime="0.00" waitingCount="0" stopTime="0.00" timeLoss="19.76" rerouteNo="0" devices="tripinfo_93" vType="passenger" speedFactor="0.92" vaporized=""/>
    <tripinfo id="21" depart="105.00" departLane="-26654756#1_0" departPos="5.10" departSpeed="0.00" departDelay="0.00" arrival="545.00" arrivalLane="-319663200#4_0" arrivalPos="131.50" arrivalSpeed="21.64" duration="440.00" routeLength="7047.77" waitingTime="31.00" waitingCount="2" stopTime="0.00" timeLoss="139.39" rerouteNo="0" devices="tripinfo_21" vType="passenger" speedFactor="1.01" vaporized=""/>
    <tripinfo id="43" depart="215.00" departLane="-28186482#4_0" departPos="2.64" departSpeed="0.00" departDelay="0.00" arrival="549.00" arrivalLane="-231431526#7_0" arrivalPos="34.39" arrivalSpeed="14.18" duration="334.00" routeLength="6052.65" waitingTime="0.00" waitingCount="0" stopTime="0.00" timeLoss="69.52" rerouteNo="0" devices="tripinfo_43" vType="passenger" speedFactor="1.04" vaporized=""/>
    <tripinfo id="81" depart="405.00" departLane="360511885#3_0" departPos="2.13" departSpeed="0.00" departDelay="0.00" arrival="555.00" arrivalLane="-258147039#3_0" arrivalPos="0.20" arrivalSpeed="12.69" duration="150.00" routeLength="2052.79" waitingTime="0.00" waitingCount="0" stopTime="0.00" timeLoss="33.46" rerouteNo="0" devices="tripinfo_81" vType="passenger" speedFactor="1.00" vaporized=""/>
    <tripinfo id="41" depart="205.00" departLane="-396121471#0_0" departPos="5.10" departSpeed="0.00" departDelay="0.00" arrival="566.00" arrivalLane="-319658020#0_0" arrivalPos="131.32" arrivalSpeed="12.24" duration="361.00" routeLength="5599.38" waitingTime="36.00" waitingCount="1" stopTime="0.00" timeLoss="103.10" rerouteNo="0" devices="tripinfo_41" vType="passenger" speedFactor="0.96" vaporized=""/>
    <tripinfo id="66" depart="330.00" departLane="-28121214#1_0" departPos="5.10" departSpeed="0.00" departDelay="0.00" arrival="567.00" arrivalLane="1202288396#0_3" arrivalPos="35.01" arrivalSpeed="14.72" duration="237.00" routeLength="3573.42" waitingTime="2.00" waitingCount="1" stopTime="0.00" timeLoss="41.40" rerouteNo="0" devices="tripinfo_66" vType="passenger" speedFactor="0.91" vaporized=""/>
    <tripinfo id="42" depart="210.00" departLane="86264727#14_0" departPos="5.10" departSpeed="0.00" departDelay="0.00" arrival="570.00" arrivalLane="140350237#1_0" arrivalPos="10.26" arrivalSpeed="14.77" duration="360.00" routeLength="6419.10" waitingTime="0.00" waitingCount="0" stopTime="0.00" timeLoss="65.56" rerouteNo="0" devices="tripinfo_42" vType="passenger" speedFactor="1.09" vaporized=""/>
    <tripinfo id="83" depart="415.00" departLane="-319562619#1_0" departPos="5.10" departSpeed="0.00" departDelay="0.00" arrival="576.00" arrivalLane="-28485643#1_0" arrivalPos="6.73" arrivalSpeed="7.56" duration="161.00" routeLength="2795.94" waitingTime="0.00" waitingCount="0" stopTime="0.00" timeLoss="42.24" rerouteNo="0" devices="tripinfo_83" vType="passenger" speedFactor="0.97" vaporized=""/>
    <tripinfo id="64" depart="320.00" departLane="-326150423#2_0" departPos="5.10" departSpeed="0.00" departDelay="0.00" arrival="590.00" arrivalLane="-233249039#3_0" arrivalPos="57.99" arrivalSpeed="12.75" duration="270.00" routeLength="3196.58" waitingTime="0.00" waitingCount="0" stopTime="0.00" timeLoss="27.79" rerouteNo="0" devices="tripinfo_64" vType="passenger" speedFactor="0.94" vaporized=""/>
    <tripinfo id="26" depart="130.00" departLane="315427805_0" departPos="5.10" departSpeed="0.00" departDelay="0.00" arrival="595.00" arrivalLane="28268720#6_0" arrivalPos="51.37" arrivalSpeed="12.54" duration="465.00" routeLength="7563.17" waitingTime="0.00" waitingCount="0" stopTime="0.00" timeLoss="93.18" rerouteNo="0" devices="tripinfo_26" vType="passenger" speedFactor="0.92" vaporized=""/>
    <tripinfo id="89" depart="445.00" departLane="319659814#3_0" departPos="5.10" departSpeed="0.00" departDelay="0.00" arrival="601.00" arrivalLane="319536897#12_0" arrivalPos="9.42" arrivalSpeed="8.16" duration="156.00" routeLength="1866.96" waitingTime="0.00" waitingCount="0" stopTime="0.00" timeLoss="35.59" rerouteNo="0" devices="tripinfo_89" vType="passenger" speedFactor="1.02" vaporized=""/>
    <tripinfo id="70" depart="350.00" departLane="-320145117#1_0" departPos="5.10" departSpeed="0.00" departDelay="0.00" arrival="603.00" arrivalLane="360691156#2_0" arrivalPos="14.72" arrivalSpeed="14.02" duration="253.00" routeLength="3780.67" waitingTime="0.00" waitingCount="0" stopTime="0.00" timeLoss="48.83" rerouteNo="0" devices="tripinfo_70" vType="passenger" speedFactor="1.02" vaporized=""/>
    <tripinfo id="36" depart="180.00" departLane="316169374#2_0" departPos="4.46" departSpeed="0.00" departDelay="0.00" arrival="605.00" arrivalLane="-50335670#10_0" arrivalPos="6.67" arrivalSpeed="13.18" duration="425.00" routeLength="6177.74" waitingTime="20.00" waitingCount="3" stopTime="0.00" timeLoss="100.55" rerouteNo="0" devices="tripinfo_36" vType="passenger" speedFactor="0.97" vaporized=""/>
    <tripinfo id="51" depart="255.00" departLane="-320147254#0_0" departPos="5.10" departSpeed="0.00" departDelay="0.00" arrival="606.00" arrivalLane="315427804#5_0" arrivalPos="30.54" arrivalSpeed="13.37" duration="351.00" routeLength="6313.68" waitingTime="39.00" waitingCount="1" stopTime="0.00" timeLoss="111.65" rerouteNo="0" devices="tripinfo_51" vType="passenger" speedFactor="1.17" vaporized=""/>
    <tripinfo id="103" depart="515.00" departLane="-360693972#0_0" departPos="5.10" departSpeed="0.00" departDelay="0.00" arrival="611.00" arrivalLane="86258060#3_0" arrivalPos="12.05" arrivalSpeed="7.73" duration="96.00" routeLength="973.28" waitingTime="0.00" waitingCount="0" stopTime="0.00" timeLoss="23.22" rerouteNo="0" devices="tripinfo_103" vType="passenger" speedFactor="0.95" vaporized=""/>
    <tripinfo id="71" depart="355.00" departLane="-823441939#0_0" departPos="5.10" departSpeed="0.00" departDelay="0.00" arrival="620.00" arrivalLane="-319562638#1_0" arrivalPos="14.39" arrivalSpeed="9.49" duration="265.00" routeLength="4124.84" waitingTime="0.00" waitingCount="0" stopTime="0.00" timeLoss="56.52" rerouteNo="0" devices="tripinfo_71" vType="passenger" speedFactor="0.97" vaporized=""/>
    <tripinfo id="77" depart="385.00" departLane="-360314925#0_0" departPos="5.10" departSpeed="0.00" departDelay="0.00" arrival="621.00" arrivalLane="28195477#1_0" arrivalPos="62.27" arrivalSpeed="13.37" duration="236.00" routeLength="4363.55" waitingTime="0.00" waitingCount="0" stopTime="0.00" timeLoss="53.94" rerouteNo="0" devices="tripinfo_77" vType="passenger" speedFactor="0.98" vaporized=""/>
    <tripinfo id="54" depart="270.00" departLane="360691175#2_0" departPos="5.10" departSpeed="0.00" departDelay="0.00" arrival="625.00" arrivalLane="-320147278#4_0" arrivalPos="16.95" arrivalSpeed="11.50" duration="355.00" routeLength="6821.92" waitingTime="10.00" waitingCount="2" stopTime="0.00" timeLoss="85.31" rerouteNo="0" devices="tripinfo_54" vType="passenger" speedFactor="1.00" vaporized=""/>
    <tripinfo id="100" depart="500.00" departLane="360337304_0" departPos="5.10" departSpeed="0.00" departDelay="0.00" arrival="636.00" arrivalLane="-319392755#2_0" arrivalPos="75.88" arrivalSpeed="13.58" duration="136.00" routeLength="1882.74" waitingTime="0.00" waitingCount="0" stopTime="0.00" timeLoss="33.54" rerouteNo="0" devices="tripinfo_100" vType="passenger" speedFactor="1.06" vaporized=""/>
    <tripinfo id="80" depart="400.00" departLane="-319659802#2_0" departPos="5.10" departSpeed="0.00" departDelay="0.00" arrival="640.00" arrivalLane="50335653#2_0" arrivalPos="9.74" arrivalSpeed="13.80" duration="240.00" routeLength="3154.30" waitingTime="40.00" waitingCount="1" stopTime="0.00" timeLoss="88.94" rerouteNo="0" devices="tripinfo_80" vType="passenger" speedFactor="1.03" vaporized=""/>